|===============================================================================
|
|  DFTB+ release 20.2
|
|  Copyright (C) 2006 - 2020  DFTB+ developers group
|
|===============================================================================
|
|  When publishing results obtained with DFTB+, please cite the following
|  reference:
|
|  * DFTB+, a software package for efficient approximate density functional
|    theory based atomistic simulations, J. Chem. Phys. 152, 124101 (2020).
|    [doi: 10.1063/1.5143190]
|
|  You should also cite additional publications crediting the parametrization
|  data you use. Please consult the documentation of the SK-files for the
|  references.
|
|===============================================================================

Reading input file 'dftb_in.hsd'
Parser version: 9

--------------------------------------------------------------------------------
Reading SK-files:
Done.
WARNING!
-> The following 1 node(s) have been ignored by the parser:
(1)
Path: dftbplusinput/Hamiltonian/DFTB/MaxAngularMomentum/N
Line: 10-10 (File: dftb_in.hsd)



Processed input in HSD format written to 'dftb_pin.hsd'

Starting initialization...
--------------------------------------------------------------------------------
OpenMP threads:              12
Chosen random seed:          8866995
Mode:                        Static calculation
Self consistent charges:     No
Spin polarisation:           No
Nr. of up electrons:             7.000000
Nr. of down electrons:           7.000000
Periodic boundaries:         No
Electronic solver:           Relatively robust
Electronic temperature:        0.100000E-07 H      0.272114E-06 eV
Included shells:             C:  s, p
                             O:  s, p
                             H:  s
Extra options:
                             Mulliken analysis

--------------------------------------------------------------------------------

***  Geometry step: 0


Total Energy:                       -4.5952934215 H         -125.0443 eV
Extrapolated to 0K:                 -4.5952934215 H         -125.0443 eV
Total Mermin free energy:           -4.5952934215 H         -125.0443 eV
Force related energy:               -4.5952934215 H         -125.0443 eV


--------------------------------------------------------------------------------
DFTB+ running times                          cpu [s]             wall clock [s]
--------------------------------------------------------------------------------
Pre-SCC initialisation                 +     0.37  ( 67.4%)      0.04  ( 44.4%)
SCC                                    +     0.18  ( 32.4%)      0.05  ( 55.6%)
--------------------------------------------------------------------------------
Missing                                +     0.00  (  0.2%)      0.00  (  0.0%)
Total                                  =     0.55  (100.0%)      0.08  (100.0%)
--------------------------------------------------------------------------------
